file 83029 1642179666                                           
version 3
run General-0-20220114-17:58:03-11503
attr configname General
attr datetime 20220114-17:58:03
attr datetimef 20220114-175803
attr experiment General
attr inifile omnetpp.ini
attr iterationvars ""
attr iterationvarsd ""
attr iterationvarsf ""
attr measurement ""
attr network simulation_examples.simulations.mechostdyn_test.MECHOSTDYN_test1
attr processid 11503
attr repetition 0
attr replication #0
attr resultdir results
attr runnumber 0
attr seedset 0
config image-path ../../../inet4.3/images:../../../Simu5G/images:../../../veins_inet/images:../../../veins/images
config network simulation_examples.simulations.mechostdyn_test.MECHOSTDYN_test1
config sim-time-limit 70s
config **.numBands 25
config **.ueTxPower 26
config **.eNodeBTxPower 46
config **.mechost.macNodeId 0
config *.mechost.cellularNic.nrPhy.dynamicCellAssociation true
config *.mechost.masterId 0
config *.mechost.macCellId 0
config *.mechost.nrMasterId 1
config *.mechost.nrMacCellId 1
config **.gNodeB1.macCellId 1
config **.gNodeB1.macNodeId 1
config **.mechost.mobility.initFromDisplayString false
config **.mechost.mobility.initialX 380m
config **.mechost.mobility.initialY 150m
config **.mechost.mobility.initialZ 0m
config *.car.mobilityType "\"LinearMobility\""
config **.car.mobility.initialX 100m
config **.car.mobility.initialY 250m
config **.car.mobility.initialMovementHeading 0deg
config **.car.mobility.speed 10mps
config *.car.cellularNic.nrPhy.dynamicCellAssociation true
config *.car.masterId 0
config *.car.macCellId 0
config *.car.nrMasterId 1
config *.car.nrMacCellId 1
config *.mechost.app[0].localAddress "\"mechost\""
config *.mechost.app[1].localAddress "\"mechost\""
config *.mechost.app[1].mecOrchestratorPort 3300
config *.mechost.app[1].mecOrchestratorAddress "\"mechost\""
config *.car.numApps 1
config *.car.app[0].typename RegistrationVim
config *.car.app[0].localPort 3333
config *.car.app[0].destPort 3333
config *.car.app[0].destAddress "\"mechost\""
config *.car.app[0].localAddress "\"car\""

vector 0 MECHOSTDYN_test1.gNodeB1.pppIf.ppp transmissionState:vector ETV
attr interpolationmode sample-hold
attr source transmissionStateChanged
attr title "tx state, vector"
vector 1 MECHOSTDYN_test1.gNodeB1.pppMEHostIf.ppp transmissionState:vector ETV
attr interpolationmode sample-hold
attr source transmissionStateChanged
attr title "tx state, vector"
vector 2 MECHOSTDYN_test1.mechost.cellularNic.phy servingCell:vector ETV
attr source servingCell
attr title "ID of the serving eNodeB for the UE, vector"
attr unit ""
vector 3 MECHOSTDYN_test1.mechost.cellularNic.nrChannelModel[0] distance:vector ETV
attr source distance
attr title "distance between UE and serving base station, vector"
attr unit meters
vector 4 MECHOSTDYN_test1.mechost.cellularNic.nrPhy servingCell:vector ETV
attr source servingCell
attr title "ID of the serving eNodeB for the UE, vector"
attr unit ""
vector 5 MECHOSTDYN_test1.car.cellularNic.phy servingCell:vector ETV
attr source servingCell
attr title "ID of the serving eNodeB for the UE, vector"
attr unit ""
vector 6 MECHOSTDYN_test1.car.cellularNic.nrChannelModel[0] distance:vector ETV
attr source distance
attr title "distance between UE and serving base station, vector"
attr unit meters
vector 7 MECHOSTDYN_test1.car.cellularNic.nrPhy servingCell:vector ETV
attr source servingCell
attr title "ID of the serving eNodeB for the UE, vector"
attr unit ""
vector 8 MECHOSTDYN_test1.gNodeB1.cellularNic.mac avgServedBlocksUl:vector ETV
attr source avgServedBlocksUl
attr title "LTE Avg Served Blocks Ul, vector"
attr unit blocks
vector 9 MECHOSTDYN_test1.gNodeB1.cellularNic.mac avgServedBlocksDl:vector ETV
attr source avgServedBlocksDl
attr title "LTE Avg Served Blocks Dl, vector"
attr unit blocks
vector 10 MECHOSTDYN_test1.mechost.cellularNic.nrChannelModel[0] measuredSinrUl:vector ETV
attr source measuredSinrUl
attr title "SINR measured at feedback computation, UL, vector"
attr unit dB
vector 11 MECHOSTDYN_test1.mechost.cellularNic.nrChannelModel[0] measuredSinrDl:vector ETV
attr source measuredSinrDl
attr title "SINR measured at feedback computation, DL, vector"
attr unit dB
vector 12 MECHOSTDYN_test1.gNodeB1.cellularNic.mac receivedPacketFromLowerLayer:vector(packetBytes) ETV
attr interpolationmode none
attr source receivedPacketFromLowerLayer
vector 13 MECHOSTDYN_test1.car.cellularNic.nrChannelModel[0] measuredSinrUl:vector ETV
attr source measuredSinrUl
attr title "SINR measured at feedback computation, UL, vector"
attr unit dB
vector 14 MECHOSTDYN_test1.car.cellularNic.nrChannelModel[0] measuredSinrDl:vector ETV
attr source measuredSinrDl
attr title "SINR measured at feedback computation, DL, vector"
attr unit dB
0	4687 8 0 0 0 0 1 0 0 0 0
1	4695 8 0 0 0 0 1 0 0 0 0
2	4703 8 0 0 0 0 1 0 0 0 0
3	4711 22 0 0 0 0 1 224.43707358634 224.43707358634 224.43707358634 50372
4	4733 8 0 0 0 0 1 1 1 1 1
5	4741 8 0 0 0 0 1 0 0 0 0
6	4749 21 0 0 0 0 1 248.0503981049 248.0503981049 248.0503981049 61529
7	4770 8 0 0 0 0 1 1 1 1 1
8	4778 155 11 92 0.001 0.012 12 0 0 0 0
9	4933 155 11 92 0.001 0.012 12 0 0 0 0
10	5088 56 23 67 0.002 0.008 2 21.616137792234 21.616137792234 43.232275584469 934.51482610572
11	5144 56 23 67 0.002 0.008 2 45.275118958791 45.275118958791 90.550237917582 4099.6727934654
12	5200 56 24 70 0.002 0.008 4 1 1 4 4
13	5256 56 25 69 0.002 0.008 2 38.988963930126 38.990618529905 77.979582460031 3040.4076416892
14	5312 55 25 69 0.002 0.008 2 37.135062260533 38.83158101011 75.966643270644 2886.9045328384
8	5367 13099 100 6614 0.013 0.9 888 0 0 0 0
9	18466 13099 100 6614 0.013 0.9 888 0 0 0 0
10	31565 4386 112 6589 0.014 0.896 148 21.616137792234 21.616137792234 3199.1883932507 69154.097131823
11	35951 4386 112 6589 0.014 0.896 148 45.275118958791 45.275118958791 6700.7176059011 303375.78671644
12	40337 4628 113 6592 0.014 0.896 296 1 1 296 296
13	44965 4378 114 6591 0.014 0.896 148 31.197801243508 40.189276505096 5434.8083473493 201162.24092467
14	49343 4374 114 6591 0.014 0.896 148 34.500545884843 51.663770746671 6262.1598585096 269704.2882406
vector 15 MECHOSTDYN_test1.car.udp packetSent:vector(packetBytes) ETV
attr interpolationmode none
attr source packetSent
attr title "packets sent, vector(packetBytes)"
vector 16 MECHOSTDYN_test1.car.cellularNic.pdcpRrc receivedPacketFromUpperLayer:vector(packetBytes) ETV
attr interpolationmode none
attr source receivedPacketFromUpperLayer
vector 17 MECHOSTDYN_test1.car.cellularNic.pdcpRrc sentPacketToLowerLayer:vector(packetBytes) ETV
attr interpolationmode none
attr source sentPacketToLowerLayer
vector 18 MECHOSTDYN_test1.car.cellularNic.nrRlc.um receivedPacketFromUpperLayer:vector(packetBytes) ETV
attr interpolationmode none
attr source receivedPacketFromUpperLayer
vector 19 MECHOSTDYN_test1.car.cellularNic.nrMac receivedPacketFromUpperLayer:vector(packetBytes) ETV
attr interpolationmode none
attr source receivedPacketFromUpperLayer
vector 20 MECHOSTDYN_test1.car.cellularNic.nrMac sentPacketToLowerLayer:vector(packetBytes) ETV
attr interpolationmode none
attr source sentPacketToLowerLayer
vector 21 MECHOSTDYN_test1.gNodeB1.cellularNic.mac sentPacketToLowerLayer:vector(packetBytes) ETV
attr interpolationmode none
attr source sentPacketToLowerLayer
vector 22 MECHOSTDYN_test1.car.cellularNic.nrMac receivedPacketFromLowerLayer:vector(packetBytes) ETV
attr interpolationmode none
attr source receivedPacketFromLowerLayer
vector 23 MECHOSTDYN_test1.car.cellularNic.nrMac sentPacketToUpperLayer:vector(packetBytes) ETV
attr interpolationmode none
attr source sentPacketToUpperLayer
vector 24 MECHOSTDYN_test1.car.cellularNic.nrRlc.um rlcPacketLossUl:vector ETV
attr source rlcPacketLossUl
attr title "rlc Packet Loss, vector"
attr unit ""
vector 25 MECHOSTDYN_test1.car.cellularNic.nrRlc.um sentPacketToLowerLayer:vector(packetBytes) ETV
attr interpolationmode none
attr source sentPacketToLowerLayer
vector 26 MECHOSTDYN_test1.car.cellularNic.nrPhy averageCqiUl:vector ETV
attr source averageCqiUl
attr title "Average Cqi reported in UL, vector"
attr unit cqi
vector 27 MECHOSTDYN_test1.car.cellularNic.nrChannelModel[0] rcvdSinrUl:vector ETV
attr source rcvdSinrUl
attr title "SINR measured at packet reception, UL, vector"
attr unit dB
vector 28 MECHOSTDYN_test1.car.cellularNic.nrMac macDelayUl:vector ETV
attr source macDelayUl
attr title "Delay at the MAC layer UL, vector"
attr unit s
vector 29 MECHOSTDYN_test1.gNodeB1.cellularNic.mac sentPacketToUpperLayer:vector(packetBytes) ETV
attr interpolationmode none
attr source sentPacketToUpperLayer
vector 30 MECHOSTDYN_test1.gNodeB1.cellularNic.rlc.um receivedPacketFromLowerLayer:vector(packetBytes) ETV
attr interpolationmode none
attr source receivedPacketFromLowerLayer
vector 31 MECHOSTDYN_test1.car.cellularNic.nrRlc.um rlcPduThroughputUl:vector ETV
attr source rlcPduThroughputUl
attr title "Throughput at the rlc layer UL, vector"
attr unit Bps
vector 32 MECHOSTDYN_test1.car.cellularNic.nrRlc.um rlcPduDelayUl:vector ETV
attr source rlcPduDelayUl
attr title "Delay at the rlc layer UL, vector"
attr unit s
vector 33 MECHOSTDYN_test1.car.cellularNic.nrRlc.um rlcPduPacketLossUl:vector ETV
attr source rlcPduPacketLossUl
attr title "rlc Packet Loss, vector"
attr unit ""
vector 34 MECHOSTDYN_test1.car.cellularNic.nrMac harqErrorRate_1st_Ul:vector ETV
attr source harqErrorRate_1st_Ul
attr title "Harq Error Rate Ul, vector"
attr unit ""
vector 35 MECHOSTDYN_test1.car.cellularNic.nrMac harqErrorRateUl:vector ETV
attr source harqErrorRateUl
attr title "Harq Error Rate Ul, vector"
attr unit ""
vector 36 MECHOSTDYN_test1.car.cellularNic.nrMac harqTxAttemptsUl:vector ETV
attr source harqTxAttemptsUl
attr title "Harq Tx Attempts Ul, vector"
attr unit ""
vector 37 MECHOSTDYN_test1.car.cellularNic.nrRlc.um rlcThroughputUl:vector ETV
attr source rlcThroughputUl
attr title "Throughput at the rlc layer UL, vector"
attr unit Bps
vector 38 MECHOSTDYN_test1.car.cellularNic.nrRlc.um rlcPacketLossTotal:vector ETV
attr source rlcPacketLossTotal
attr title "rlc Packet Loss, vector"
attr unit ""
vector 39 MECHOSTDYN_test1.car.cellularNic.nrRlc.um rlcDelayUl:vector ETV
attr source rlcDelayUl
attr title "Delay at the rlc layer UL, vector"
attr unit s
vector 40 MECHOSTDYN_test1.gNodeB1.cellularNic.rlc.um sentPacketToUpperLayer:vector(packetBytes) ETV
attr interpolationmode none
attr source sentPacketToUpperLayer
vector 41 MECHOSTDYN_test1.gNodeB1.cellularNic.pdcpRrc receivedPacketFromLowerLayer:vector(packetBytes) ETV
attr interpolationmode none
attr source receivedPacketFromLowerLayer
vector 42 MECHOSTDYN_test1.gNodeB1.cellularNic.pdcpRrc sentPacketToUpperLayer:vector(packetBytes) ETV
attr interpolationmode none
attr source sentPacketToUpperLayer
vector 43 MECHOSTDYN_test1.gNodeB1.cellularNic.pdcpRrc receivedPacketFromUpperLayer:vector(packetBytes) ETV
attr interpolationmode none
attr source receivedPacketFromUpperLayer
vector 44 MECHOSTDYN_test1.gNodeB1.cellularNic.pdcpRrc sentPacketToLowerLayer:vector(packetBytes) ETV
attr interpolationmode none
attr source sentPacketToLowerLayer
vector 45 MECHOSTDYN_test1.gNodeB1.cellularNic.rlc.um receivedPacketFromUpperLayer:vector(packetBytes) ETV
attr interpolationmode none
attr source receivedPacketFromUpperLayer
vector 46 MECHOSTDYN_test1.gNodeB1.cellularNic.mac receivedPacketFromUpperLayer:vector(packetBytes) ETV
attr interpolationmode none
attr source receivedPacketFromUpperLayer
vector 47 MECHOSTDYN_test1.gNodeB1.cellularNic.rlc.um rlcPacketLossDl:vector ETV
attr source rlcPacketLossDl
attr title "rlc Packet Loss, vector"
attr unit ""
vector 48 MECHOSTDYN_test1.gNodeB1.cellularNic.rlc.um sentPacketToLowerLayer:vector(packetBytes) ETV
attr interpolationmode none
attr source sentPacketToLowerLayer
vector 49 MECHOSTDYN_test1.car.cellularNic.nrMac harqErrorRate_2nd_Ul:vector ETV
attr source harqErrorRate_2nd_Ul
attr title "Harq Error Rate Ul, vector"
attr unit ""
vector 50 MECHOSTDYN_test1.mechost.cellularNic.nrPhy averageCqiDl:vector ETV
attr source averageCqiDl
attr title "Average Cqi reported in DL, vector"
attr unit cqi
vector 51 MECHOSTDYN_test1.mechost.cellularNic.nrChannelModel[0] rcvdSinrDl:vector ETV
attr source rcvdSinrDl
attr title "SINR measured at packet reception, DL, vector"
attr unit dB
vector 52 MECHOSTDYN_test1.mechost.cellularNic.nrMac receivedPacketFromLowerLayer:vector(packetBytes) ETV
attr interpolationmode none
attr source receivedPacketFromLowerLayer
vector 53 MECHOSTDYN_test1.mechost.cellularNic.nrMac sentPacketToLowerLayer:vector(packetBytes) ETV
attr interpolationmode none
attr source sentPacketToLowerLayer
vector 54 MECHOSTDYN_test1.gNodeB1.cellularNic.mac macDelayDl:vector ETV
attr source macDelayDl
attr title "Delay at the MAC layer UL, vector"
attr unit s
vector 55 MECHOSTDYN_test1.mechost.cellularNic.nrMac sentPacketToUpperLayer:vector(packetBytes) ETV
attr interpolationmode none
attr source sentPacketToUpperLayer
vector 56 MECHOSTDYN_test1.mechost.cellularNic.nrRlc.um receivedPacketFromLowerLayer:vector(packetBytes) ETV
attr interpolationmode none
attr source receivedPacketFromLowerLayer
vector 57 MECHOSTDYN_test1.mechost.cellularNic.nrRlc.um rlcPduThroughputDl:vector ETV
attr source rlcPduThroughputDl
attr title "Throughput at the rlc layer DL, vector"
attr unit Bps
vector 58 MECHOSTDYN_test1.mechost.cellularNic.nrRlc.um rlcPduDelayDl:vector ETV
attr source rlcPduDelayDl
attr title "Delay at the rlc layer UL, vector"
attr unit s
vector 59 MECHOSTDYN_test1.mechost.cellularNic.nrRlc.um rlcThroughputDl:vector ETV
attr source rlcThroughputDl
attr title "Throughput at the rlc layer DL, vector"
attr unit Bps
vector 60 MECHOSTDYN_test1.mechost.cellularNic.nrRlc.um rlcPacketLossDl:vector ETV
attr source rlcPacketLossDl
attr title "rlc Packet Loss, vector"
attr unit ""
vector 61 MECHOSTDYN_test1.mechost.cellularNic.nrRlc.um rlcPacketLossTotal:vector ETV
attr source rlcPacketLossTotal
attr title "rlc Packet Loss, vector"
attr unit ""
vector 62 MECHOSTDYN_test1.mechost.cellularNic.nrRlc.um rlcDelayDl:vector ETV
attr source rlcDelayDl
attr title "Delay at the rlc layer DL, vector"
attr unit s
vector 63 MECHOSTDYN_test1.mechost.cellularNic.nrRlc.um sentPacketToUpperLayer:vector(packetBytes) ETV
attr interpolationmode none
attr source sentPacketToUpperLayer
vector 64 MECHOSTDYN_test1.mechost.cellularNic.nrRlc.um rlcPduPacketLossDl:vector ETV
attr source rlcPduPacketLossDl
attr title "rlc Packet Loss, vector"
attr unit ""
vector 65 MECHOSTDYN_test1.mechost.cellularNic.pdcpRrc receivedPacketFromLowerLayer:vector(packetBytes) ETV
attr interpolationmode none
attr source receivedPacketFromLowerLayer
vector 66 MECHOSTDYN_test1.mechost.cellularNic.pdcpRrc sentPacketToUpperLayer:vector(packetBytes) ETV
attr interpolationmode none
attr source sentPacketToUpperLayer
vector 67 MECHOSTDYN_test1.mechost.udp packetReceived:vector(packetBytes) ETV
attr interpolationmode none
attr source packetReceived
attr title "packets received, vector(packetBytes)"
vector 68 MECHOSTDYN_test1.mechost.udp passedUpPk:vector(count) ETV
attr interpolationmode none
attr source packetSentToUpper
attr title "packets passed up, vector(count)"
vector 69 MECHOSTDYN_test1.mechost.cellularNic.nrMac harqErrorRate_1st_Dl:vector ETV
attr source harqErrorRate_1st_Dl
attr title "Harq Error Rate Dl, vector"
attr unit ""
vector 70 MECHOSTDYN_test1.mechost.cellularNic.nrMac harqErrorRateDl:vector ETV
attr source harqErrorRateDl
attr title "Harq Error Rate Dl, vector"
attr unit ""
vector 71 MECHOSTDYN_test1.mechost.cellularNic.nrMac harqTxAttemptsDl:vector ETV
attr source harqTxAttemptsDl
attr title "Harq Tx Attempts Dl, vector"
attr unit ""
3	63249 29 7590 7590 1.022 1.022 1 224.43707358634 224.43707358634 224.43707358634 50372
8	63278 4868 6622 9101 0.901 1.227 327 0 2 4 6
9	68146 4868 6622 9101 0.901 1.227 327 0 2 2 4
10	73014 1638 6634 9097 0.902 1.226 55 21.616137792234 21.616137792234 1188.8875785729 25699.157717907
11	74652 1638 6634 9097 0.902 1.226 55 45.275118958791 45.275118958791 2490.1315427335 112741.0018203
12	76290 1820 6635 9100 0.902 1.226 115 1 141 445 38425
13	78110 1637 6636 9099 0.902 1.226 55 18.863549453945 32.99318524269 1296.32545175 32461.850565574
14	79747 1632 6636 9099 0.902 1.226 55 39.517434263675 41.469878607046 2180.2817824566 86436.507090503
15	81379 14 7350 7350 1 1 1 208 208 208 43264
16	81393 14 7353 7353 1 1 1 228 228 228 51984
17	81407 14 7353 7353 1 1 1 229 229 229 52441
18	81421 14 7354 7354 1 1 1 229 229 229 52441
19	81435 48 7356 7462 1 1.01 3 94 231 464 81518
20	81483 63 7361 7518 1 1.016 4 1 141 334 38314
21	81546 129 7371 7576 1.001 1.021 8 1 233 240 54296
22	81675 112 7383 7579 1.002 1.021 7 1 1 7 7
23	81787 31 7398 7458 1.004 1.01 2 1 1 2 2
24	81818 46 7400 7549 1.004 1.02 3 0 0 0 0
25	81864 34 7400 7460 1.004 1.01 2 94 139 233 28157
26	81898 50 7405 7519 1.004 1.016 3 10 14 37 465
27	81948 90 7416 7530 1.005 1.017 3 19.152659779491 23.381712748053 63.439960403396 1350.5724720964
28	82038 38 7432 7546 1.008 1.02 2 0.004 0.01 0.014 0.000116
29	82076 50 7432 7567 1.008 1.021 3 1 139 234 28158
30	82126 34 7436 7549 1.008 1.02 2 94 139 233 28157
31	82160 31 7436 7549 1.008 1.02 2 0 0 0 0
32	82191 38 7436 7549 1.008 1.02 2 0.004 0.01 0.014 0.000116
33	82229 31 7436 7549 1.008 1.02 2 0 0 0 0
34	82260 32 7451 7509 1.009 1.015 2 0 1 1 1
35	82292 48 7451 7579 1.009 1.021 3 0 1 1 1
36	82340 32 7451 7579 1.009 1.021 2 1 2 3 5
37	82372 29 7549 7549 1.02 1.02 1 224.50980392157 224.50980392157 224.50980392157 50404.652056901
38	82401 15 7549 7549 1.02 1.02 1 0 0 0 0
39	82416 18 7549 7549 1.02 1.02 1 0.02 0.02 0.02 0.0004
40	82434 17 7549 7549 1.02 1.02 1 229 229 229 52441
41	82451 17 7550 7550 1.02 1.02 1 229 229 229 52441
42	82468 17 7550 7550 1.02 1.02 1 228 228 228 51984
43	82485 17 7556 7556 1.02 1.02 1 228 228 228 51984
44	82502 17 7556 7556 1.02 1.02 1 229 229 229 52441
45	82519 17 7557 7557 1.02 1.02 1 229 229 229 52441
46	82536 35 7559 7571 1.02 1.021 2 231 231 462 106722
47	82571 16 7569 7569 1.021 1.021 1 0 0 0 0
48	82587 18 7569 7569 1.021 1.021 1 231 231 231 53361
49	82605 16 7579 7579 1.021 1.021 1 0 0 0 0
50	82621 17 7590 7590 1.022 1.022 1 14 14 14 196
51	82638 30 7590 7590 1.022 1.022 1 44.454719433313 44.454719433313 44.454719433313 1976.2220798946
52	82668 18 7591 7591 1.022 1.022 1 233 233 233 54289
53	82686 16 7606 7606 1.025 1.025 1 1 1 1 1
54	82702 20 7606 7606 1.025 1.025 1 0.004 0.004 0.004 1.6e-05
55	82722 18 7606 7606 1.025 1.025 1 231 231 231 53361
56	82740 18 7609 7609 1.025 1.025 1 231 231 231 53361
57	82758 16 7609 7609 1.025 1.025 1 0 0 0 0
58	82774 20 7609 7609 1.025 1.025 1 0.004 0.004 0.004 1.6e-05
59	82794 30 7609 7609 1.025 1.025 1 223.41463414634 223.41463414634 223.41463414634 49914.098750744
60	82824 16 7609 7609 1.025 1.025 1 0 0 0 0
61	82840 16 7609 7609 1.025 1.025 1 0 0 0 0
62	82856 20 7609 7609 1.025 1.025 1 0.025 0.025 0.025 0.000625
63	82876 18 7609 7609 1.025 1.025 1 229 229 229 52441
64	82894 16 7609 7609 1.025 1.025 1 0 0 0 0
65	82910 18 7610 7610 1.025 1.025 1 229 229 229 52441
66	82928 18 7610 7610 1.025 1.025 1 228 228 228 51984
67	82946 18 7613 7613 1.025 1.025 1 208 208 208 43264
68	82964 16 7613 7613 1.025 1.025 1 1 1 1 1
69	82980 16 7627 7627 1.026 1.026 1 0 0 0 0
70	82996 16 7627 7627 1.026 1.026 1 0 0 0 0
71	83012 16 7627 7627 1.026 1.026 1 1 1 1 1

