version 3
run General-0-20220118-14:20:29-61157
attr configname General
attr datetime 20220118-14:20:29
attr datetimef 20220118-142029
attr experiment General
attr inifile omnetpp.ini
attr iterationvars ""
attr iterationvarsd ""
attr iterationvarsf ""
attr measurement ""
attr network simulation_examples.simulations.mechostdyn_test.MECHOSTDYN_test1
attr processid 61157
attr repetition 0
attr replication #0
attr resultdir results
attr runnumber 0
attr seedset 0
config image-path ../../../inet4.3/images:../../../Simu5G/images:../../../veins_inet/images:../../../veins/images
config network simulation_examples.simulations.mechostdyn_test.MECHOSTDYN_test1
config sim-time-limit 70s
config **.numBands 25
config **.ueTxPower 26
config **.eNodeBTxPower 46
config **.mechost.macNodeId 0
config *.mechost.cellularNic.nrPhy.dynamicCellAssociation true
config *.mechost.masterId 0
config *.mechost.macCellId 0
config *.mechost.nrMasterId 1
config *.mechost.nrMacCellId 1
config **.gNodeB1.macCellId 1
config **.gNodeB1.macNodeId 1
config **.mechost.mobility.initFromDisplayString false
config **.mechost.mobility.initialX 380m
config **.mechost.mobility.initialY 150m
config **.mechost.mobility.initialZ 0m
config *.car.mobilityType "\"LinearMobility\""
config **.car.mobility.initialX 100m
config **.car.mobility.initialY 250m
config **.car.mobility.initialMovementHeading 0deg
config **.car.mobility.speed 10mps
config *.car.cellularNic.nrPhy.dynamicCellAssociation true
config *.car.masterId 0
config *.car.macCellId 0
config *.car.nrMasterId 1
config *.car.nrMacCellId 1
config *.mechost.app[0].localAddress "\"mechost\""
config *.mechost.app[1].localAddress "\"mechost\""
config *.mechost.app[1].mecOrchestratorPort 3300
config *.mechost.app[1].mecOrchestratorAddress "\"mechost\""
config *.mechost.color "\"green\""
config *.car.numApps 1
config *.car.app[0].typename RegistrationVim
config *.car.app[0].localPort 3333
config *.car.app[0].destPort 3333
config *.car.app[0].destAddress "\"mechost\""
config *.car.app[0].localAddress "\"car\""

vector 0 MECHOSTDYN_test1.gNodeB1.pppIf.ppp transmissionState:vector ETV
attr interpolationmode sample-hold
attr source transmissionStateChanged
attr title "tx state, vector"
vector 1 MECHOSTDYN_test1.gNodeB1.pppMEHostIf.ppp transmissionState:vector ETV
attr interpolationmode sample-hold
attr source transmissionStateChanged
attr title "tx state, vector"
vector 2 MECHOSTDYN_test1.mechost.cellularNic.phy servingCell:vector ETV
attr source servingCell
attr title "ID of the serving eNodeB for the UE, vector"
attr unit ""
vector 3 MECHOSTDYN_test1.mechost.cellularNic.nrChannelModel[0] distance:vector ETV
attr source distance
attr title "distance between UE and serving base station, vector"
attr unit meters
vector 4 MECHOSTDYN_test1.mechost.cellularNic.nrPhy servingCell:vector ETV
attr source servingCell
attr title "ID of the serving eNodeB for the UE, vector"
attr unit ""
vector 5 MECHOSTDYN_test1.car.cellularNic.phy servingCell:vector ETV
attr source servingCell
attr title "ID of the serving eNodeB for the UE, vector"
attr unit ""
vector 6 MECHOSTDYN_test1.car.cellularNic.nrChannelModel[0] distance:vector ETV
attr source distance
attr title "distance between UE and serving base station, vector"
attr unit meters
vector 7 MECHOSTDYN_test1.car.cellularNic.nrPhy servingCell:vector ETV
attr source servingCell
attr title "ID of the serving eNodeB for the UE, vector"
attr unit ""
vector 8 MECHOSTDYN_test1.gNodeB1.cellularNic.mac avgServedBlocksUl:vector ETV
attr source avgServedBlocksUl
attr title "LTE Avg Served Blocks Ul, vector"
attr unit blocks
vector 9 MECHOSTDYN_test1.gNodeB1.cellularNic.mac avgServedBlocksDl:vector ETV
attr source avgServedBlocksDl
attr title "LTE Avg Served Blocks Dl, vector"
attr unit blocks
vector 10 MECHOSTDYN_test1.mechost.cellularNic.nrChannelModel[0] measuredSinrUl:vector ETV
attr source measuredSinrUl
attr title "SINR measured at feedback computation, UL, vector"
attr unit dB
vector 11 MECHOSTDYN_test1.mechost.cellularNic.nrChannelModel[0] measuredSinrDl:vector ETV
attr source measuredSinrDl
attr title "SINR measured at feedback computation, DL, vector"
attr unit dB
vector 12 MECHOSTDYN_test1.gNodeB1.cellularNic.mac receivedPacketFromLowerLayer:vector(packetBytes) ETV
attr interpolationmode none
attr source receivedPacketFromLowerLayer
vector 13 MECHOSTDYN_test1.car.cellularNic.nrChannelModel[0] measuredSinrUl:vector ETV
attr source measuredSinrUl
attr title "SINR measured at feedback computation, UL, vector"
attr unit dB
vector 14 MECHOSTDYN_test1.car.cellularNic.nrChannelModel[0] measuredSinrDl:vector ETV
attr source measuredSinrDl
attr title "SINR measured at feedback computation, DL, vector"
attr unit dB
vector 15 MECHOSTDYN_test1.car.udp packetSent:vector(packetBytes) ETV
attr interpolationmode none
attr source packetSent
attr title "packets sent, vector(packetBytes)"
vector 16 MECHOSTDYN_test1.car.cellularNic.pdcpRrc receivedPacketFromUpperLayer:vector(packetBytes) ETV
attr interpolationmode none
attr source receivedPacketFromUpperLayer
vector 17 MECHOSTDYN_test1.car.cellularNic.pdcpRrc sentPacketToLowerLayer:vector(packetBytes) ETV
attr interpolationmode none
attr source sentPacketToLowerLayer
vector 18 MECHOSTDYN_test1.car.cellularNic.nrRlc.um receivedPacketFromUpperLayer:vector(packetBytes) ETV
attr interpolationmode none
attr source receivedPacketFromUpperLayer
vector 19 MECHOSTDYN_test1.car.cellularNic.nrMac receivedPacketFromUpperLayer:vector(packetBytes) ETV
attr interpolationmode none
attr source receivedPacketFromUpperLayer
vector 20 MECHOSTDYN_test1.car.cellularNic.nrMac sentPacketToLowerLayer:vector(packetBytes) ETV
attr interpolationmode none
attr source sentPacketToLowerLayer
vector 21 MECHOSTDYN_test1.gNodeB1.cellularNic.mac sentPacketToLowerLayer:vector(packetBytes) ETV
attr interpolationmode none
attr source sentPacketToLowerLayer
vector 22 MECHOSTDYN_test1.car.cellularNic.nrMac receivedPacketFromLowerLayer:vector(packetBytes) ETV
attr interpolationmode none
attr source receivedPacketFromLowerLayer
vector 23 MECHOSTDYN_test1.car.cellularNic.nrMac sentPacketToUpperLayer:vector(packetBytes) ETV
attr interpolationmode none
attr source sentPacketToUpperLayer
vector 24 MECHOSTDYN_test1.car.cellularNic.nrRlc.um rlcPacketLossUl:vector ETV
attr source rlcPacketLossUl
attr title "rlc Packet Loss, vector"
attr unit ""
vector 25 MECHOSTDYN_test1.car.cellularNic.nrRlc.um sentPacketToLowerLayer:vector(packetBytes) ETV
attr interpolationmode none
attr source sentPacketToLowerLayer
vector 26 MECHOSTDYN_test1.car.cellularNic.nrPhy averageCqiUl:vector ETV
attr source averageCqiUl
attr title "Average Cqi reported in UL, vector"
attr unit cqi
vector 27 MECHOSTDYN_test1.car.cellularNic.nrChannelModel[0] rcvdSinrUl:vector ETV
attr source rcvdSinrUl
attr title "SINR measured at packet reception, UL, vector"
attr unit dB
vector 28 MECHOSTDYN_test1.car.cellularNic.nrMac macDelayUl:vector ETV
attr source macDelayUl
attr title "Delay at the MAC layer UL, vector"
attr unit s
vector 29 MECHOSTDYN_test1.gNodeB1.cellularNic.mac sentPacketToUpperLayer:vector(packetBytes) ETV
attr interpolationmode none
attr source sentPacketToUpperLayer
vector 30 MECHOSTDYN_test1.gNodeB1.cellularNic.rlc.um receivedPacketFromLowerLayer:vector(packetBytes) ETV
attr interpolationmode none
attr source receivedPacketFromLowerLayer
vector 31 MECHOSTDYN_test1.car.cellularNic.nrRlc.um rlcPduThroughputUl:vector ETV
attr source rlcPduThroughputUl
attr title "Throughput at the rlc layer UL, vector"
attr unit Bps
vector 32 MECHOSTDYN_test1.car.cellularNic.nrRlc.um rlcPduDelayUl:vector ETV
attr source rlcPduDelayUl
attr title "Delay at the rlc layer UL, vector"
attr unit s
vector 33 MECHOSTDYN_test1.car.cellularNic.nrRlc.um rlcPduPacketLossUl:vector ETV
attr source rlcPduPacketLossUl
attr title "rlc Packet Loss, vector"
attr unit ""
vector 34 MECHOSTDYN_test1.car.cellularNic.nrMac harqErrorRate_1st_Ul:vector ETV
attr source harqErrorRate_1st_Ul
attr title "Harq Error Rate Ul, vector"
attr unit ""
vector 35 MECHOSTDYN_test1.car.cellularNic.nrMac harqErrorRateUl:vector ETV
attr source harqErrorRateUl
attr title "Harq Error Rate Ul, vector"
attr unit ""
vector 36 MECHOSTDYN_test1.car.cellularNic.nrMac harqTxAttemptsUl:vector ETV
attr source harqTxAttemptsUl
attr title "Harq Tx Attempts Ul, vector"
attr unit ""
vector 37 MECHOSTDYN_test1.car.cellularNic.nrRlc.um rlcThroughputUl:vector ETV
attr source rlcThroughputUl
attr title "Throughput at the rlc layer UL, vector"
attr unit Bps
vector 38 MECHOSTDYN_test1.car.cellularNic.nrRlc.um rlcPacketLossTotal:vector ETV
attr source rlcPacketLossTotal
attr title "rlc Packet Loss, vector"
attr unit ""
vector 39 MECHOSTDYN_test1.car.cellularNic.nrRlc.um rlcDelayUl:vector ETV
attr source rlcDelayUl
attr title "Delay at the rlc layer UL, vector"
attr unit s
vector 40 MECHOSTDYN_test1.gNodeB1.cellularNic.rlc.um sentPacketToUpperLayer:vector(packetBytes) ETV
attr interpolationmode none
attr source sentPacketToUpperLayer
vector 41 MECHOSTDYN_test1.gNodeB1.cellularNic.pdcpRrc receivedPacketFromLowerLayer:vector(packetBytes) ETV
attr interpolationmode none
attr source receivedPacketFromLowerLayer
vector 42 MECHOSTDYN_test1.gNodeB1.cellularNic.pdcpRrc sentPacketToUpperLayer:vector(packetBytes) ETV
attr interpolationmode none
attr source sentPacketToUpperLayer
vector 43 MECHOSTDYN_test1.gNodeB1.cellularNic.pdcpRrc receivedPacketFromUpperLayer:vector(packetBytes) ETV
attr interpolationmode none
attr source receivedPacketFromUpperLayer
vector 44 MECHOSTDYN_test1.gNodeB1.cellularNic.pdcpRrc sentPacketToLowerLayer:vector(packetBytes) ETV
attr interpolationmode none
attr source sentPacketToLowerLayer
vector 45 MECHOSTDYN_test1.gNodeB1.cellularNic.rlc.um receivedPacketFromUpperLayer:vector(packetBytes) ETV
attr interpolationmode none
attr source receivedPacketFromUpperLayer
vector 46 MECHOSTDYN_test1.gNodeB1.cellularNic.mac receivedPacketFromUpperLayer:vector(packetBytes) ETV
attr interpolationmode none
attr source receivedPacketFromUpperLayer
vector 47 MECHOSTDYN_test1.gNodeB1.cellularNic.rlc.um rlcPacketLossDl:vector ETV
attr source rlcPacketLossDl
attr title "rlc Packet Loss, vector"
attr unit ""
vector 48 MECHOSTDYN_test1.gNodeB1.cellularNic.rlc.um sentPacketToLowerLayer:vector(packetBytes) ETV
attr interpolationmode none
attr source sentPacketToLowerLayer
vector 49 MECHOSTDYN_test1.car.cellularNic.nrMac harqErrorRate_2nd_Ul:vector ETV
attr source harqErrorRate_2nd_Ul
attr title "Harq Error Rate Ul, vector"
attr unit ""
vector 50 MECHOSTDYN_test1.mechost.cellularNic.nrPhy averageCqiDl:vector ETV
attr source averageCqiDl
attr title "Average Cqi reported in DL, vector"
attr unit cqi
vector 51 MECHOSTDYN_test1.mechost.cellularNic.nrChannelModel[0] rcvdSinrDl:vector ETV
attr source rcvdSinrDl
attr title "SINR measured at packet reception, DL, vector"
attr unit dB
vector 52 MECHOSTDYN_test1.mechost.cellularNic.nrMac receivedPacketFromLowerLayer:vector(packetBytes) ETV
attr interpolationmode none
attr source receivedPacketFromLowerLayer
vector 53 MECHOSTDYN_test1.mechost.cellularNic.nrMac sentPacketToLowerLayer:vector(packetBytes) ETV
attr interpolationmode none
attr source sentPacketToLowerLayer
vector 54 MECHOSTDYN_test1.gNodeB1.cellularNic.mac macDelayDl:vector ETV
attr source macDelayDl
attr title "Delay at the MAC layer UL, vector"
attr unit s
vector 55 MECHOSTDYN_test1.mechost.cellularNic.nrMac sentPacketToUpperLayer:vector(packetBytes) ETV
attr interpolationmode none
attr source sentPacketToUpperLayer
vector 56 MECHOSTDYN_test1.mechost.cellularNic.nrRlc.um receivedPacketFromLowerLayer:vector(packetBytes) ETV
attr interpolationmode none
attr source receivedPacketFromLowerLayer
vector 57 MECHOSTDYN_test1.mechost.cellularNic.nrRlc.um rlcPduThroughputDl:vector ETV
attr source rlcPduThroughputDl
attr title "Throughput at the rlc layer DL, vector"
attr unit Bps
vector 58 MECHOSTDYN_test1.mechost.cellularNic.nrRlc.um rlcPduDelayDl:vector ETV
attr source rlcPduDelayDl
attr title "Delay at the rlc layer UL, vector"
attr unit s
vector 59 MECHOSTDYN_test1.mechost.cellularNic.nrRlc.um rlcThroughputDl:vector ETV
attr source rlcThroughputDl
attr title "Throughput at the rlc layer DL, vector"
attr unit Bps
vector 60 MECHOSTDYN_test1.mechost.cellularNic.nrRlc.um rlcPacketLossDl:vector ETV
attr source rlcPacketLossDl
attr title "rlc Packet Loss, vector"
attr unit ""
vector 61 MECHOSTDYN_test1.mechost.cellularNic.nrRlc.um rlcPacketLossTotal:vector ETV
attr source rlcPacketLossTotal
attr title "rlc Packet Loss, vector"
attr unit ""
vector 62 MECHOSTDYN_test1.mechost.cellularNic.nrRlc.um rlcDelayDl:vector ETV
attr source rlcDelayDl
attr title "Delay at the rlc layer DL, vector"
attr unit s
vector 63 MECHOSTDYN_test1.mechost.cellularNic.nrRlc.um sentPacketToUpperLayer:vector(packetBytes) ETV
attr interpolationmode none
attr source sentPacketToUpperLayer
vector 64 MECHOSTDYN_test1.mechost.cellularNic.nrRlc.um rlcPduPacketLossDl:vector ETV
attr source rlcPduPacketLossDl
attr title "rlc Packet Loss, vector"
attr unit ""
vector 65 MECHOSTDYN_test1.mechost.cellularNic.pdcpRrc receivedPacketFromLowerLayer:vector(packetBytes) ETV
attr interpolationmode none
attr source receivedPacketFromLowerLayer
vector 66 MECHOSTDYN_test1.mechost.cellularNic.pdcpRrc sentPacketToUpperLayer:vector(packetBytes) ETV
attr interpolationmode none
attr source sentPacketToUpperLayer
vector 67 MECHOSTDYN_test1.mechost.udp packetReceived:vector(packetBytes) ETV
attr interpolationmode none
attr source packetReceived
attr title "packets received, vector(packetBytes)"
vector 68 MECHOSTDYN_test1.mechost.udp passedUpPk:vector(count) ETV
attr interpolationmode none
attr source packetSentToUpper
attr title "packets passed up, vector(count)"
vector 69 MECHOSTDYN_test1.mechost.cellularNic.nrMac harqErrorRate_1st_Dl:vector ETV
attr source harqErrorRate_1st_Dl
attr title "Harq Error Rate Dl, vector"
attr unit ""
vector 70 MECHOSTDYN_test1.mechost.cellularNic.nrMac harqErrorRateDl:vector ETV
attr source harqErrorRateDl
attr title "Harq Error Rate Dl, vector"
attr unit ""
vector 71 MECHOSTDYN_test1.mechost.cellularNic.nrMac harqTxAttemptsDl:vector ETV
attr source harqTxAttemptsDl
attr title "Harq Tx Attempts Dl, vector"
attr unit ""
0	0	0	0
1	0	0	0
2	0	0	0
3	0	0	224.43707358634
3	7590	1.022	224.43707358634
4	0	0	1
5	0	0	0
6	0	0	248.0503981049
7	0	0	1
8	11	0.001	0
8	17	0.002	0
8	27	0.003	0
8	33	0.004	0
8	39	0.005	0
8	47	0.006	0
8	55	0.007	0
8	61	0.008	0
8	71	0.009	0
8	78	0.01	0
8	84	0.011	0
8	92	0.012	0
8	100	0.013	0
8	106	0.014	0
8	116	0.015	0
8	122	0.016	0
8	128	0.017	0
8	136	0.018	0
8	144	0.019	0
8	150	0.02	0
8	160	0.021	0
8	166	0.022	0
8	172	0.023	0
8	180	0.024	0
8	188	0.025	0
8	194	0.026	0
8	204	0.027	0
8	210	0.028	0
8	216	0.029	0
8	224	0.03	0
8	232	0.031	0
8	238	0.032	0
8	248	0.033	0
8	254	0.034	0
8	260	0.035	0
8	268	0.036	0
8	276	0.037	0
8	282	0.038	0
8	292	0.039	0
8	298	0.04	0
8	304	0.041	0
8	312	0.042	0
8	320	0.043	0
8	326	0.044	0
8	336	0.045	0
8	342	0.046	0
8	348	0.047	0
8	356	0.048	0
8	364	0.049	0
8	371	0.05	0
8	381	0.051	0
8	387	0.052	0
8	393	0.053	0
8	401	0.054	0
8	409	0.055	0
8	415	0.056	0
8	425	0.057	0
8	431	0.058	0
8	437	0.059	0
8	445	0.06	0
8	453	0.061	0
8	459	0.062	0
8	469	0.063	0
8	475	0.064	0
8	481	0.065	0
8	489	0.066	0
8	497	0.067	0
8	503	0.068	0
8	513	0.069	0
8	519	0.07	0
8	525	0.071	0
8	533	0.072	0
8	541	0.073	0
8	547	0.074	0
8	557	0.075	0
8	563	0.076	0
8	569	0.077	0
8	577	0.078	0
8	585	0.079	0
8	591	0.08	0
8	601	0.081	0
8	607	0.082	0
8	613	0.083	0
8	621	0.084	0
8	629	0.085	0
8	635	0.086	0
8	645	0.087	0
8	651	0.088	0
8	657	0.089	0
8	665	0.09	0
8	673	0.091	0
8	679	0.092	0
8	689	0.093	0
8	695	0.094	0
8	701	0.095	0
8	709	0.096	0
8	717	0.097	0
8	723	0.098	0
8	733	0.099	0
8	740	0.1	0
8	746	0.101	0
8	754	0.102	0
8	762	0.103	0
8	768	0.104	0
8	778	0.105	0
8	784	0.106	0
8	790	0.107	0
8	798	0.108	0
8	806	0.109	0
8	812	0.11	0
8	822	0.111	0
8	828	0.112	0
8	834	0.113	0
8	842	0.114	0
8	850	0.115	0
8	856	0.116	0
8	866	0.117	0
8	872	0.118	0
8	878	0.119	0
8	886	0.12	0
8	894	0.121	0
8	900	0.122	0
8	910	0.123	0
8	916	0.124	0
8	922	0.125	0
8	930	0.126	0
8	938	0.127	0
8	944	0.128	0
8	954	0.129	0
8	960	0.13	0
8	966	0.131	0
8	974	0.132	0
8	982	0.133	0
8	988	0.134	0
8	998	0.135	0
8	1004	0.136	0
8	1010	0.137	0
8	1018	0.138	0
8	1026	0.139	0
8	1032	0.14	0
8	1042	0.141	0
8	1048	0.142	0
8	1054	0.143	0
8	1062	0.144	0
8	1070	0.145	0
8	1076	0.146	0
8	1086	0.147	0
8	1092	0.148	0
8	1098	0.149	0
8	1106	0.15	0
8	1114	0.151	0
8	1120	0.152	0
8	1130	0.153	0
8	1136	0.154	0
8	1142	0.155	0
8	1150	0.156	0
8	1158	0.157	0
8	1164	0.158	0
8	1174	0.159	0
8	1180	0.16	0
8	1186	0.161	0
8	1194	0.162	0
8	1202	0.163	0
8	1208	0.164	0
8	1218	0.165	0
8	1224	0.166	0
8	1230	0.167	0
8	1238	0.168	0
8	1246	0.169	0
8	1252	0.17	0
8	1262	0.171	0
8	1268	0.172	0
8	1274	0.173	0
8	1282	0.174	0
8	1290	0.175	0
8	1296	0.176	0
8	1306	0.177	0
8	1312	0.178	0
8	1318	0.179	0
8	1326	0.18	0
8	1334	0.181	0
8	1340	0.182	0
8	1350	0.183	0
8	1356	0.184	0
8	1362	0.185	0
8	1370	0.186	0
8	1378	0.187	0
8	1384	0.188	0
8	1394	0.189	0
8	1400	0.19	0
8	1406	0.191	0
8	1414	0.192	0
8	1422	0.193	0
8	1428	0.194	0
8	1438	0.195	0
8	1444	0.196	0
8	1450	0.197	0
8	1458	0.198	0
8	1466	0.199	0
8	1473	0.2	0
8	1483	0.201	0
8	1489	0.202	0
8	1495	0.203	0
8	1503	0.204	0
8	1511	0.205	0
8	1517	0.206	0
8	1527	0.207	0
8	1533	0.208	0
8	1539	0.209	0
8	1547	0.21	0
8	1555	0.211	0
8	1561	0.212	0
8	1571	0.213	0
8	1577	0.214	0
8	1583	0.215	0
8	1591	0.216	0
8	1599	0.217	0
8	1605	0.218	0
8	1615	0.219	0
8	1621	0.22	0
8	1627	0.221	0
8	1635	0.222	0
8	1643	0.223	0
8	1649	0.224	0
8	1659	0.225	0
8	1665	0.226	0
8	1671	0.227	0
8	1679	0.228	0
8	1687	0.229	0
8	1693	0.23	0
8	1703	0.231	0
8	1709	0.232	0
8	1715	0.233	0
8	1723	0.234	0
8	1731	0.235	0
8	1737	0.236	0
8	1747	0.237	0
8	1753	0.238	0
8	1759	0.239	0
8	1767	0.24	0
8	1775	0.241	0
8	1781	0.242	0
8	1791	0.243	0
8	1797	0.244	0
8	1803	0.245	0
8	1811	0.246	0
8	1819	0.247	0
8	1825	0.248	0
8	1835	0.249	0
8	1841	0.25	0
8	1847	0.251	0
8	1855	0.252	0
8	1863	0.253	0
8	1869	0.254	0
8	1879	0.255	0
8	1885	0.256	0
8	1891	0.257	0
8	1899	0.258	0
8	1907	0.259	0
8	1913	0.26	0
8	1923	0.261	0
8	1929	0.262	0
8	1935	0.263	0
8	1943	0.264	0
8	1951	0.265	0
8	1957	0.266	0
8	1967	0.267	0
8	1973	0.268	0
8	1979	0.269	0
8	1987	0.27	0
8	1995	0.271	0
8	2001	0.272	0
8	2011	0.273	0
8	2017	0.274	0
8	2023	0.275	0
8	2031	0.276	0
8	2039	0.277	0
8	2045	0.278	0
8	2055	0.279	0
8	2061	0.28	0
8	2067	0.281	0
8	2075	0.282	0
8	2083	0.283	0
8	2089	0.284	0
8	2099	0.285	0
8	2105	0.286	0
8	2111	0.287	0
8	2119	0.288	0
8	2127	0.289	0
8	2133	0.29	0
8	2143	0.291	0
8	2149	0.292	0
8	2155	0.293	0
8	2163	0.294	0
8	2171	0.295	0
8	2177	0.296	0
8	2187	0.297	0
8	2193	0.298	0
8	2199	0.299	0
8	2208	0.3	0
8	2216	0.301	0
8	2222	0.302	0
8	2232	0.303	0
8	2238	0.304	0
8	2244	0.305	0
8	2252	0.306	0
8	2260	0.307	0
8	2266	0.308	0
8	2276	0.309	0
8	2282	0.31	0
8	2288	0.311	0
8	2296	0.312	0
8	2304	0.313	0
8	2310	0.314	0
8	2320	0.315	0
8	2326	0.316	0
8	2332	0.317	0
8	2340	0.318	0
8	2348	0.319	0
8	2354	0.32	0
8	2364	0.321	0
8	2370	0.322	0
8	2376	0.323	0
8	2384	0.324	0
8	2392	0.325	0
8	2398	0.326	0
8	2408	0.327	0
8	2414	0.328	0
8	2420	0.329	0
8	2428	0.33	0
8	2436	0.331	0
8	2442	0.332	0
8	2452	0.333	0
8	2458	0.334	0
8	2464	0.335	0
8	2472	0.336	0
8	2480	0.337	0
8	2486	0.338	0
8	2496	0.339	0
8	2502	0.34	0
8	2508	0.341	0
8	2516	0.342	0
8	2524	0.343	0
8	2530	0.344	0
8	2540	0.345	0
8	2546	0.346	0
8	2552	0.347	0
8	2560	0.348	0
8	2568	0.349	0
8	2574	0.35	0
8	2584	0.351	0
8	2590	0.352	0
8	2596	0.353	0
8	2604	0.354	0
8	2612	0.355	0
8	2618	0.356	0
8	2628	0.357	0
8	2634	0.358	0
8	2640	0.359	0
8	2648	0.36	0
8	2656	0.361	0
8	2662	0.362	0
8	2672	0.363	0
8	2678	0.364	0
8	2684	0.365	0
8	2692	0.366	0
8	2700	0.367	0
8	2706	0.368	0
8	2716	0.369	0
8	2722	0.37	0
8	2728	0.371	0
8	2736	0.372	0
8	2744	0.373	0
8	2750	0.374	0
8	2760	0.375	0
8	2766	0.376	0
8	2772	0.377	0
8	2780	0.378	0
8	2788	0.379	0
8	2794	0.38	0
8	2804	0.381	0
8	2810	0.382	0
8	2816	0.383	0
8	2824	0.384	0
8	2832	0.385	0
8	2838	0.386	0
8	2848	0.387	0
8	2854	0.388	0
8	2860	0.389	0
8	2868	0.39	0
8	2876	0.391	0
8	2882	0.392	0
8	2892	0.393	0
8	2898	0.394	0
8	2904	0.395	0
8	2912	0.396	0
8	2920	0.397	0
8	2926	0.398	0
8	2936	0.399	0
8	2943	0.4	0
8	2949	0.401	0
8	2957	0.402	0
8	2965	0.403	0
8	2971	0.404	0
8	2981	0.405	0
8	2987	0.406	0
8	2993	0.407	0
8	3001	0.408	0
8	3009	0.409	0
8	3015	0.41	0
8	3025	0.411	0
8	3031	0.412	0
8	3037	0.413	0
8	3045	0.414	0
8	3053	0.415	0
8	3059	0.416	0
8	3069	0.417	0
8	3075	0.418	0
8	3081	0.419	0
8	3089	0.42	0
8	3097	0.421	0
8	3103	0.422	0
8	3113	0.423	0
8	3119	0.424	0
8	3125	0.425	0
8	3133	0.426	0
8	3141	0.427	0
8	3147	0.428	0
8	3157	0.429	0
8	3163	0.43	0
8	3169	0.431	0
8	3177	0.432	0
8	3185	0.433	0
8	3191	0.434	0
8	3201	0.435	0
8	3207	0.436	0
8	3213	0.437	0
8	3221	0.438	0
8	3229	0.439	0
8	3235	0.44	0
8	3245	0.441	0
8	3251	0.442	0
8	3257	0.443	0
8	3265	0.444	0
8	3273	0.445	0
8	3279	0.446	0
8	3289	0.447	0
8	3295	0.448	0
8	3301	0.449	0
8	3309	0.45	0
8	3317	0.451	0
8	3323	0.452	0
8	3333	0.453	0
8	3339	0.454	0
8	3345	0.455	0
8	3353	0.456	0
8	3361	0.457	0
8	3367	0.458	0
8	3377	0.459	0
8	3383	0.46	0
8	3389	0.461	0
8	3397	0.462	0
8	3405	0.463	0
8	3411	0.464	0
8	3421	0.465	0
8	3427	0.466	0
8	3433	0.467	0
8	3441	0.468	0
8	3449	0.469	0
8	3455	0.47	0
8	3465	0.471	0
8	3471	0.472	0
8	3477	0.473	0
8	3485	0.474	0
8	3493	0.475	0
8	3499	0.476	0
8	3509	0.477	0
8	3515	0.478	0
8	3521	0.479	0
8	3529	0.48	0
8	3537	0.481	0
8	3543	0.482	0
8	3553	0.483	0
8	3559	0.484	0
8	3565	0.485	0
8	3573	0.486	0
8	3581	0.487	0
8	3587	0.488	0
8	3597	0.489	0
8	3603	0.49	0
8	3609	0.491	0
8	3617	0.492	0
8	3625	0.493	0
8	3631	0.494	0
8	3641	0.495	0
8	3647	0.496	0
8	3653	0.497	0
8	3661	0.498	0
8	3669	0.499	0
8	3676	0.5	0
8	3686	0.501	0
8	3692	0.502	0
8	3698	0.503	0
8	3706	0.504	0
8	3714	0.505	0
8	3720	0.506	0
8	3730	0.507	0
8	3736	0.508	0
8	3742	0.509	0
8	3750	0.51	0
8	3758	0.511	0
8	3764	0.512	0
8	3774	0.513	0
8	3780	0.514	0
8	3786	0.515	0
8	3794	0.516	0
8	3802	0.517	0
8	3808	0.518	0
8	3818	0.519	0
8	3824	0.52	0
8	3830	0.521	0
8	3838	0.522	0
8	3846	0.523	0
8	3852	0.524	0
8	3862	0.525	0
8	3868	0.526	0
8	3874	0.527	0
8	3882	0.528	0
8	3890	0.529	0
8	3896	0.53	0
8	3906	0.531	0
8	3912	0.532	0
8	3918	0.533	0
8	3926	0.534	0
8	3934	0.535	0
8	3940	0.536	0
8	3950	0.537	0
8	3956	0.538	0
8	3962	0.539	0
8	3970	0.54	0
8	3978	0.541	0
8	3984	0.542	0
8	3994	0.543	0
8	4000	0.544	0
8	4006	0.545	0
8	4014	0.546	0
8	4022	0.547	0
8	4028	0.548	0
8	4038	0.549	0
8	4044	0.55	0
8	4050	0.551	0
8	4058	0.552	0
8	4066	0.553	0
8	4072	0.554	0
8	4082	0.555	0
8	4088	0.556	0
8	4094	0.557	0
8	4102	0.558	0
8	4110	0.559	0
8	4116	0.56	0
8	4126	0.561	0
8	4132	0.562	0
8	4138	0.563	0
8	4146	0.564	0
8	4154	0.565	0
8	4160	0.566	0
8	4170	0.567	0
8	4176	0.568	0
8	4182	0.569	0
8	4190	0.57	0
8	4198	0.571	0
8	4204	0.572	0
8	4214	0.573	0
8	4220	0.574	0
8	4226	0.575	0
8	4234	0.576	0
8	4242	0.577	0
8	4248	0.578	0
8	4258	0.579	0
8	4264	0.58	0
8	4270	0.581	0
8	4278	0.582	0
8	4286	0.583	0
8	4292	0.584	0
8	4302	0.585	0
8	4308	0.586	0
8	4314	0.587	0
8	4322	0.588	0
8	4330	0.589	0
8	4336	0.59	0
8	4346	0.591	0
8	4352	0.592	0
8	4358	0.593	0
8	4366	0.594	0
8	4374	0.595	0
8	4380	0.596	0
8	4390	0.597	0
8	4396	0.598	0
8	4402	0.599	0
8	4411	0.6	0
8	4419	0.601	0
8	4425	0.602	0
8	4435	0.603	0
8	4441	0.604	0
8	4447	0.605	0
8	4455	0.606	0
8	4463	0.607	0
8	4469	0.608	0
8	4479	0.609	0
8	4485	0.61	0
8	4491	0.611	0
8	4499	0.612	0
8	4507	0.613	0
8	4513	0.614	0
8	4523	0.615	0
8	4529	0.616	0
8	4535	0.617	0
8	4543	0.618	0
8	4551	0.619	0
8	4557	0.62	0
8	4567	0.621	0
8	4573	0.622	0
8	4579	0.623	0
8	4587	0.624	0
8	4595	0.625	0
8	4601	0.626	0
8	4611	0.627	0
8	4617	0.628	0
8	4623	0.629	0
8	4631	0.63	0
8	4639	0.631	0
8	4645	0.632	0
8	4655	0.633	0
8	4661	0.634	0
8	4667	0.635	0
8	4675	0.636	0
8	4683	0.637	0
8	4689	0.638	0
8	4699	0.639	0
8	4705	0.64	0
8	4711	0.641	0
8	4719	0.642	0
8	4727	0.643	0
8	4733	0.644	0
8	4743	0.645	0
8	4749	0.646	0
8	4755	0.647	0
8	4763	0.648	0
8	4771	0.649	0
8	4777	0.65	0
8	4787	0.651	0
8	4793	0.652	0
8	4799	0.653	0
8	4807	0.654	0
8	4815	0.655	0
8	4821	0.656	0
8	4831	0.657	0
8	4837	0.658	0
8	4843	0.659	0
8	4851	0.66	0
8	4859	0.661	0
8	4865	0.662	0
8	4875	0.663	0
8	4881	0.664	0
8	4887	0.665	0
8	4895	0.666	0
8	4903	0.667	0
8	4909	0.668	0
8	4919	0.669	0
8	4925	0.67	0
8	4931	0.671	0
8	4939	0.672	0
8	4947	0.673	0
8	4953	0.674	0
8	4963	0.675	0
8	4969	0.676	0
8	4975	0.677	0
8	4983	0.678	0
8	4991	0.679	0
8	4997	0.68	0
8	5007	0.681	0
8	5013	0.682	0
8	5019	0.683	0
8	5027	0.684	0
8	5035	0.685	0
8	5041	0.686	0
8	5051	0.687	0
8	5057	0.688	0
8	5063	0.689	0
8	5071	0.69	0
8	5079	0.691	0
8	5085	0.692	0
8	5095	0.693	0
8	5101	0.694	0
8	5107	0.695	0
8	5115	0.696	0
8	5123	0.697	0
8	5129	0.698	0
8	5139	0.699	0
8	5146	0.7	0
8	5152	0.701	0
8	5160	0.702	0
8	5168	0.703	0
8	5174	0.704	0
8	5184	0.705	0
8	5190	0.706	0
8	5196	0.707	0
8	5204	0.708	0
8	5212	0.709	0
8	5218	0.71	0
8	5228	0.711	0
8	5234	0.712	0
8	5240	0.713	0
8	5248	0.714	0
8	5256	0.715	0
8	5262	0.716	0
8	5272	0.717	0
8	5278	0.718	0
8	5284	0.719	0
8	5292	0.72	0
8	5300	0.721	0
8	5306	0.722	0
8	5316	0.723	0
8	5322	0.724	0
8	5328	0.725	0
8	5336	0.726	0
8	5344	0.727	0
8	5350	0.728	0
8	5360	0.729	0
8	5366	0.73	0
8	5372	0.731	0
8	5380	0.732	0
8	5388	0.733	0
8	5394	0.734	0
8	5404	0.735	0
8	5410	0.736	0
8	5416	0.737	0
8	5424	0.738	0
8	5432	0.739	0
8	5438	0.74	0
8	5448	0.741	0
8	5454	0.742	0
8	5460	0.743	0
8	5468	0.744	0
8	5476	0.745	0
8	5482	0.746	0
8	5492	0.747	0
8	5498	0.748	0
8	5504	0.749	0
8	5512	0.75	0
8	5520	0.751	0
8	5526	0.752	0
8	5536	0.753	0
8	5542	0.754	0
8	5548	0.755	0
8	5556	0.756	0
8	5564	0.757	0
8	5570	0.758	0
8	5580	0.759	0
8	5586	0.76	0
8	5592	0.761	0
8	5600	0.762	0
8	5608	0.763	0
8	5614	0.764	0
8	5624	0.765	0
8	5630	0.766	0
8	5636	0.767	0
8	5644	0.768	0
8	5652	0.769	0
8	5658	0.77	0
8	5668	0.771	0
8	5674	0.772	0
8	5680	0.773	0
8	5688	0.774	0
8	5696	0.775	0
8	5702	0.776	0
8	5712	0.777	0
8	5718	0.778	0
8	5724	0.779	0
8	5732	0.78	0
8	5740	0.781	0
8	5746	0.782	0
8	5756	0.783	0
8	5762	0.784	0
8	5768	0.785	0
8	5776	0.786	0
8	5784	0.787	0
8	5790	0.788	0
8	5800	0.789	0
8	5806	0.79	0
8	5812	0.791	0
8	5820	0.792	0
8	5828	0.793	0
8	5834	0.794	0
8	5844	0.795	0
8	5850	0.796	0
8	5856	0.797	0
8	5864	0.798	0
8	5872	0.799	0
8	5879	0.8	0
8	5889	0.801	0
8	5895	0.802	0
8	5901	0.803	0
8	5909	0.804	0
8	5917	0.805	0
8	5923	0.806	0
8	5933	0.807	0
8	5939	0.808	0
8	5945	0.809	0
8	5953	0.81	0
8	5961	0.811	0
8	5967	0.812	0
8	5977	0.813	0
8	5983	0.814	0
8	5989	0.815	0
8	5997	0.816	0
8	6005	0.817	0
8	6011	0.818	0
8	6021	0.819	0
8	6027	0.82	0
8	6033	0.821	0
8	6041	0.822	0
8	6049	0.823	0
8	6055	0.824	0
8	6065	0.825	0
8	6071	0.826	0
8	6077	0.827	0
8	6085	0.828	0
8	6093	0.829	0
8	6099	0.83	0
8	6109	0.831	0
8	6115	0.832	0
8	6121	0.833	0
8	6129	0.834	0
8	6137	0.835	0
8	6143	0.836	0
8	6153	0.837	0
8	6159	0.838	0
8	6165	0.839	0
8	6173	0.84	0
8	6181	0.841	0
8	6187	0.842	0
8	6197	0.843	0
8	6203	0.844	0
8	6209	0.845	0
8	6217	0.846	0
8	6225	0.847	0
8	6231	0.848	0
8	6241	0.849	0
8	6247	0.85	0
8	6253	0.851	0
8	6261	0.852	0
8	6269	0.853	0
8	6275	0.854	0
8	6285	0.855	0
8	6291	0.856	0
8	6297	0.857	0
8	6305	0.858	0
8	6313	0.859	0
8	6319	0.86	0
8	6329	0.861	0
8	6335	0.862	0
8	6341	0.863	0
8	6349	0.864	0
8	6357	0.865	0
8	6363	0.866	0
8	6373	0.867	0
8	6379	0.868	0
8	6385	0.869	0
8	6393	0.87	0
8	6401	0.871	0
8	6407	0.872	0
8	6417	0.873	0
8	6423	0.874	0
8	6429	0.875	0
8	6437	0.876	0
8	6445	0.877	0
8	6451	0.878	0
8	6461	0.879	0
8	6467	0.88	0
8	6473	0.881	0
8	6481	0.882	0
8	6489	0.883	0
8	6495	0.884	0
8	6505	0.885	0
8	6511	0.886	0
8	6517	0.887	0
8	6525	0.888	0
8	6533	0.889	0
8	6539	0.89	0
8	6549	0.891	0
8	6555	0.892	0
8	6561	0.893	0
8	6569	0.894	0
8	6577	0.895	0
8	6583	0.896	0
8	6593	0.897	0
8	6599	0.898	0
8	6605	0.899	0
8	6614	0.9	0
8	6622	0.901	0
8	6628	0.902	0
8	6638	0.903	0
8	6644	0.904	0
8	6650	0.905	0
8	6658	0.906	0
8	6666	0.907	0
8	6672	0.908	0
8	6682	0.909	0
8	6688	0.91	0
8	6694	0.911	0
8	6702	0.912	0
8	6710	0.913	0
8	6716	0.914	0
8	6726	0.915	0
8	6732	0.916	0
8	6738	0.917	0
8	6746	0.918	0
8	6754	0.919	0
8	6760	0.92	0
8	6770	0.921	0
8	6776	0.922	0
8	6782	0.923	0
8	6790	0.924	0
8	6798	0.925	0
8	6804	0.926	0
8	6814	0.927	0
8	6820	0.928	0
8	6826	0.929	0
8	6834	0.93	0
8	6842	0.931	0
8	6848	0.932	0
8	6858	0.933	0
8	6864	0.934	0
8	6870	0.935	0
8	6878	0.936	0
8	6886	0.937	0
8	6892	0.938	0
8	6902	0.939	0
8	6908	0.94	0
8	6914	0.941	0
8	6922	0.942	0
8	6930	0.943	0
8	6936	0.944	0
8	6946	0.945	0
8	6952	0.946	0
8	6958	0.947	0
8	6966	0.948	0
8	6974	0.949	0
8	6980	0.95	0
8	6990	0.951	0
8	6996	0.952	0
8	7002	0.953	0
8	7010	0.954	0
8	7018	0.955	0
8	7024	0.956	0
8	7034	0.957	0
8	7040	0.958	0
8	7046	0.959	0
8	7054	0.96	0
8	7062	0.961	0
8	7068	0.962	0
8	7078	0.963	0
8	7084	0.964	0
8	7090	0.965	0
8	7098	0.966	0
8	7106	0.967	0
8	7112	0.968	0
8	7122	0.969	0
8	7128	0.97	0
8	7134	0.971	0
8	7142	0.972	0
8	7150	0.973	0
8	7156	0.974	0
8	7166	0.975	0
8	7172	0.976	0
8	7178	0.977	0
8	7186	0.978	0
8	7194	0.979	0
8	7200	0.98	0
8	7210	0.981	0
8	7216	0.982	0
8	7222	0.983	0
8	7230	0.984	0
8	7238	0.985	0
8	7244	0.986	0
8	7254	0.987	0
8	7260	0.988	0
8	7266	0.989	0
8	7274	0.99	0
8	7282	0.991	0
8	7288	0.992	0
8	7298	0.993	0
8	7304	0.994	0
8	7310	0.995	0
8	7318	0.996	0
8	7326	0.997	0
8	7332	0.998	0
8	7342	0.999	0
8	7357	1	0
8	7364	1.001	0
8	7375	1.002	1
8	7386	1.003	0
8	7394	1.004	0
8	7410	1.005	0
8	7418	1.006	0
8	7424	1.007	0
8	7432	1.008	1
8	7444	1.009	0
8	7454	1.01	0
8	7470	1.011	0
8	7478	1.012	0
8	7484	1.013	0
8	7492	1.014	2
8	7502	1.015	0
8	7512	1.016	0
8	7524	1.017	0
8	7532	1.018	0
8	7538	1.019	0
8	7546	1.02	0
8	7567	1.021	0
8	7580	1.022	0
8	7592	1.023	0
8	7598	1.024	0
8	7604	1.025	0
8	7620	1.026	0
8	7630	1.027	0
8	7636	1.028	0
8	7646	1.029	0
8	7652	1.03	0
8	7658	1.031	0
8	7666	1.032	0
8	7674	1.033	0
8	7680	1.034	0
8	7690	1.035	0
8	7696	1.036	0
8	7702	1.037	0
8	7710	1.038	0
8	7718	1.039	0
8	7724	1.04	0
8	7734	1.041	0
8	7740	1.042	0
8	7746	1.043	0
8	7754	1.044	0
8	7762	1.045	0
8	7768	1.046	0
8	7778	1.047	0
8	7784	1.048	0
8	7790	1.049	0
8	7799	1.05	0
8	7807	1.051	0
8	7813	1.052	0
8	7823	1.053	0
8	7829	1.054	0
8	7835	1.055	0
8	7843	1.056	0
8	7851	1.057	0
8	7857	1.058	0
8	7867	1.059	0